v 0 eval {set sim_annotation {Goback N end}}
+ 0.05 1 2 tcp 40 ------- 0 1.0 4.0 0 0
- 0.05 1 2 tcp 40 ------- 0 1.0 4.0 0 0
v 0.050000000000000003 eval {set sim_annotation {FTP starts at 0.01}}
v 0.059999999999999998 eval {set sim_annotation {Send 6Packets from SYS1 to SYS4}}
r 0.07032 1 2 tcp 40 ------- 0 1.0 4.0 0 0
+ 0.07032 2 3 tcp 40 ------- 0 1.0 4.0 0 0
- 0.07032 2 3 tcp 40 ------- 0 1.0 4.0 0 0
r 0.09064 2 3 tcp 40 ------- 0 1.0 4.0 0 0
+ 0.09064 3 4 tcp 40 ------- 0 1.0 4.0 0 0
- 0.09064 3 4 tcp 40 ------- 0 1.0 4.0 0 0
r 0.11096 3 4 tcp 40 ------- 0 1.0 4.0 0 0
+ 0.11096 4 3 ack 40 ------- 0 4.0 1.0 0 1
- 0.11096 4 3 ack 40 ------- 0 4.0 1.0 0 1
r 0.13128 4 3 ack 40 ------- 0 4.0 1.0 0 1
+ 0.13128 3 2 ack 40 ------- 0 4.0 1.0 0 1
- 0.13128 3 2 ack 40 ------- 0 4.0 1.0 0 1
r 0.1516 3 2 ack 40 ------- 0 4.0 1.0 0 1
+ 0.1516 2 1 ack 40 ------- 0 4.0 1.0 0 1
- 0.1516 2 1 ack 40 ------- 0 4.0 1.0 0 1
r 0.17192 2 1 ack 40 ------- 0 4.0 1.0 0 1
+ 0.17192 1 2 tcp 1040 ------- 0 1.0 4.0 1 2
- 0.17192 1 2 tcp 1040 ------- 0 1.0 4.0 1 2
+ 0.17192 1 2 tcp 1040 ------- 0 1.0 4.0 2 3
- 0.18024 1 2 tcp 1040 ------- 0 1.0 4.0 2 3
r 0.20024 1 2 tcp 1040 ------- 0 1.0 4.0 1 2
+ 0.20024 2 3 tcp 1040 ------- 0 1.0 4.0 1 2
- 0.20024 2 3 tcp 1040 ------- 0 1.0 4.0 1 2
r 0.20856 1 2 tcp 1040 ------- 0 1.0 4.0 2 3
+ 0.20856 2 3 tcp 1040 ------- 0 1.0 4.0 2 3
- 0.20856 2 3 tcp 1040 ------- 0 1.0 4.0 2 3
r 0.22856 2 3 tcp 1040 ------- 0 1.0 4.0 1 2
+ 0.22856 3 4 tcp 1040 ------- 0 1.0 4.0 1 2
- 0.22856 3 4 tcp 1040 ------- 0 1.0 4.0 1 2
r 0.23688 2 3 tcp 1040 ------- 0 1.0 4.0 2 3
+ 0.23688 3 4 tcp 1040 ------- 0 1.0 4.0 2 3
- 0.23688 3 4 tcp 1040 ------- 0 1.0 4.0 2 3
r 0.25688 3 4 tcp 1040 ------- 0 1.0 4.0 1 2
+ 0.25688 4 3 ack 40 ------- 0 4.0 1.0 1 4
- 0.25688 4 3 ack 40 ------- 0 4.0 1.0 1 4
v 0.26000000000000001 eval {set sim_annotation {Error Occurs for 4th packet so not sent ack for the Packet}}
r 0.2652 3 4 tcp 1040 ------- 0 1.0 4.0 2 3
+ 0.2652 4 3 ack 40 ------- 0 4.0 1.0 2 5
- 0.2652 4 3 ack 40 ------- 0 4.0 1.0 2 5
r 0.2772 4 3 ack 40 ------- 0 4.0 1.0 1 4
+ 0.2772 3 2 ack 40 ------- 0 4.0 1.0 1 4
- 0.2772 3 2 ack 40 ------- 0 4.0 1.0 1 4
r 0.28552 4 3 ack 40 ------- 0 4.0 1.0 2 5
+ 0.28552 3 2 ack 40 ------- 0 4.0 1.0 2 5
- 0.28552 3 2 ack 40 ------- 0 4.0 1.0 2 5
r 0.29752 3 2 ack 40 ------- 0 4.0 1.0 1 4
+ 0.29752 2 1 ack 40 ------- 0 4.0 1.0 1 4
- 0.29752 2 1 ack 40 ------- 0 4.0 1.0 1 4
v 0.29999999999999999 eval {set sim_annotation {Retransmit Packet_4 to 6}}
r 0.30584 3 2 ack 40 ------- 0 4.0 1.0 2 5
+ 0.30584 2 1 ack 40 ------- 0 4.0 1.0 2 5
- 0.30584 2 1 ack 40 ------- 0 4.0 1.0 2 5
r 0.31784 2 1 ack 40 ------- 0 4.0 1.0 1 4
+ 0.31784 1 2 tcp 1040 ------- 0 1.0 4.0 3 6
- 0.31784 1 2 tcp 1040 ------- 0 1.0 4.0 3 6
+ 0.31784 1 2 tcp 1040 ------- 0 1.0 4.0 4 7
r 0.32616 2 1 ack 40 ------- 0 4.0 1.0 2 5
+ 0.32616 1 2 tcp 1040 ------- 0 1.0 4.0 5 8
+ 0.32616 1 2 tcp 1040 ------- 0 1.0 4.0 6 9
- 0.32616 1 2 tcp 1040 ------- 0 1.0 4.0 4 7
- 0.33448 1 2 tcp 1040 ------- 0 1.0 4.0 5 8
- 0.3428 1 2 tcp 1040 ------- 0 1.0 4.0 6 9
r 0.34616 1 2 tcp 1040 ------- 0 1.0 4.0 3 6
+ 0.34616 2 3 tcp 1040 ------- 0 1.0 4.0 3 6
- 0.34616 2 3 tcp 1040 ------- 0 1.0 4.0 3 6
r 0.35448 1 2 tcp 1040 ------- 0 1.0 4.0 4 7
+ 0.35448 2 3 tcp 1040 ------- 0 1.0 4.0 4 7
- 0.35448 2 3 tcp 1040 ------- 0 1.0 4.0 4 7
r 0.3628 1 2 tcp 1040 ------- 0 1.0 4.0 5 8
+ 0.3628 2 3 tcp 1040 ------- 0 1.0 4.0 5 8
- 0.3628 2 3 tcp 1040 ------- 0 1.0 4.0 5 8
r 0.37112 1 2 tcp 1040 ------- 0 1.0 4.0 6 9
+ 0.37112 2 3 tcp 1040 ------- 0 1.0 4.0 6 9
- 0.37112 2 3 tcp 1040 ------- 0 1.0 4.0 6 9
r 0.37448 2 3 tcp 1040 ------- 0 1.0 4.0 3 6
+ 0.37448 3 4 tcp 1040 ------- 0 1.0 4.0 3 6
- 0.37448 3 4 tcp 1040 ------- 0 1.0 4.0 3 6
r 0.3828 2 3 tcp 1040 ------- 0 1.0 4.0 4 7
+ 0.3828 3 4 tcp 1040 ------- 0 1.0 4.0 4 7
- 0.3828 3 4 tcp 1040 ------- 0 1.0 4.0 4 7
r 0.39112 2 3 tcp 1040 ------- 0 1.0 4.0 5 8
+ 0.39112 3 4 tcp 1040 ------- 0 1.0 4.0 5 8
- 0.39112 3 4 tcp 1040 ------- 0 1.0 4.0 5 8
r 0.39944 2 3 tcp 1040 ------- 0 1.0 4.0 6 9
+ 0.39944 3 4 tcp 1040 ------- 0 1.0 4.0 6 9
- 0.39944 3 4 tcp 1040 ------- 0 1.0 4.0 6 9
r 0.4028 3 4 tcp 1040 ------- 0 1.0 4.0 3 6
r 0.41112 3 4 tcp 1040 ------- 0 1.0 4.0 4 7
r 0.41944 3 4 tcp 1040 ------- 0 1.0 4.0 5 8
r 0.42776 3 4 tcp 1040 ------- 0 1.0 4.0 6 9
v 1 eval {set sim_annotation {FTP stops}}
