v 0 eval {set sim_annotation {Select and repeat}}
+ 0.05 1 2 tcp 40 ------- 0 1.0 4.0 0 0
- 0.05 1 2 tcp 40 ------- 0 1.0 4.0 0 0
v 0.050000000000000003 eval {set sim_annotation {FTP starts at 0.01}}
v 0.059999999999999998 eval {set sim_annotation {Send 8Packets from SYS1 to SYS4}}
r 0.06032 1 2 tcp 40 ------- 0 1.0 4.0 0 0
+ 0.06032 2 3 tcp 40 ------- 0 1.0 4.0 0 0
- 0.06032 2 3 tcp 40 ------- 0 1.0 4.0 0 0
r 0.07064 2 3 tcp 40 ------- 0 1.0 4.0 0 0
+ 0.07064 3 4 tcp 40 ------- 0 1.0 4.0 0 0
- 0.07064 3 4 tcp 40 ------- 0 1.0 4.0 0 0
r 0.08096 3 4 tcp 40 ------- 0 1.0 4.0 0 0
+ 0.08096 4 3 ack 40 ------- 0 4.0 1.0 0 1
- 0.08096 4 3 ack 40 ------- 0 4.0 1.0 0 1
r 0.09128 4 3 ack 40 ------- 0 4.0 1.0 0 1
+ 0.09128 3 2 ack 40 ------- 0 4.0 1.0 0 1
- 0.09128 3 2 ack 40 ------- 0 4.0 1.0 0 1
r 0.1016 3 2 ack 40 ------- 0 4.0 1.0 0 1
+ 0.1016 2 1 ack 40 ------- 0 4.0 1.0 0 1
- 0.1016 2 1 ack 40 ------- 0 4.0 1.0 0 1
r 0.11192 2 1 ack 40 ------- 0 4.0 1.0 0 1
+ 0.11192 1 2 tcp 1040 ------- 0 1.0 4.0 1 2
- 0.11192 1 2 tcp 1040 ------- 0 1.0 4.0 1 2
+ 0.11192 1 2 tcp 1040 ------- 0 1.0 4.0 2 3
- 0.12024 1 2 tcp 1040 ------- 0 1.0 4.0 2 3
r 0.13024 1 2 tcp 1040 ------- 0 1.0 4.0 1 2
+ 0.13024 2 3 tcp 1040 ------- 0 1.0 4.0 1 2
- 0.13024 2 3 tcp 1040 ------- 0 1.0 4.0 1 2
r 0.13856 1 2 tcp 1040 ------- 0 1.0 4.0 2 3
+ 0.13856 2 3 tcp 1040 ------- 0 1.0 4.0 2 3
- 0.13856 2 3 tcp 1040 ------- 0 1.0 4.0 2 3
r 0.14856 2 3 tcp 1040 ------- 0 1.0 4.0 1 2
+ 0.14856 3 4 tcp 1040 ------- 0 1.0 4.0 1 2
- 0.14856 3 4 tcp 1040 ------- 0 1.0 4.0 1 2
r 0.15688 2 3 tcp 1040 ------- 0 1.0 4.0 2 3
+ 0.15688 3 4 tcp 1040 ------- 0 1.0 4.0 2 3
- 0.15688 3 4 tcp 1040 ------- 0 1.0 4.0 2 3
r 0.16688 3 4 tcp 1040 ------- 0 1.0 4.0 1 2
+ 0.16688 4 3 ack 40 ------- 0 4.0 1.0 1 4
- 0.16688 4 3 ack 40 ------- 0 4.0 1.0 1 4
r 0.1752 3 4 tcp 1040 ------- 0 1.0 4.0 2 3
+ 0.1752 4 3 ack 40 ------- 0 4.0 1.0 2 5
- 0.1752 4 3 ack 40 ------- 0 4.0 1.0 2 5
r 0.1772 4 3 ack 40 ------- 0 4.0 1.0 1 4
+ 0.1772 3 2 ack 40 ------- 0 4.0 1.0 1 4
- 0.1772 3 2 ack 40 ------- 0 4.0 1.0 1 4
r 0.18552 4 3 ack 40 ------- 0 4.0 1.0 2 5
+ 0.18552 3 2 ack 40 ------- 0 4.0 1.0 2 5
- 0.18552 3 2 ack 40 ------- 0 4.0 1.0 2 5
r 0.18752 3 2 ack 40 ------- 0 4.0 1.0 1 4
+ 0.18752 2 1 ack 40 ------- 0 4.0 1.0 1 4
- 0.18752 2 1 ack 40 ------- 0 4.0 1.0 1 4
r 0.19584 3 2 ack 40 ------- 0 4.0 1.0 2 5
+ 0.19584 2 1 ack 40 ------- 0 4.0 1.0 2 5
- 0.19584 2 1 ack 40 ------- 0 4.0 1.0 2 5
r 0.19784 2 1 ack 40 ------- 0 4.0 1.0 1 4
+ 0.19784 1 2 tcp 1040 ------- 0 1.0 4.0 3 6
- 0.19784 1 2 tcp 1040 ------- 0 1.0 4.0 3 6
+ 0.19784 1 2 tcp 1040 ------- 0 1.0 4.0 4 7
r 0.20616 2 1 ack 40 ------- 0 4.0 1.0 2 5
+ 0.20616 1 2 tcp 1040 ------- 0 1.0 4.0 5 8
+ 0.20616 1 2 tcp 1040 ------- 0 1.0 4.0 6 9
- 0.20616 1 2 tcp 1040 ------- 0 1.0 4.0 4 7
- 0.21448 1 2 tcp 1040 ------- 0 1.0 4.0 5 8
r 0.21616 1 2 tcp 1040 ------- 0 1.0 4.0 3 6
+ 0.21616 2 3 tcp 1040 ------- 0 1.0 4.0 3 6
- 0.21616 2 3 tcp 1040 ------- 0 1.0 4.0 3 6
- 0.2228 1 2 tcp 1040 ------- 0 1.0 4.0 6 9
r 0.22448 1 2 tcp 1040 ------- 0 1.0 4.0 4 7
+ 0.22448 2 3 tcp 1040 ------- 0 1.0 4.0 4 7
- 0.22448 2 3 tcp 1040 ------- 0 1.0 4.0 4 7
r 0.2328 1 2 tcp 1040 ------- 0 1.0 4.0 5 8
+ 0.2328 2 3 tcp 1040 ------- 0 1.0 4.0 5 8
- 0.2328 2 3 tcp 1040 ------- 0 1.0 4.0 5 8
r 0.23448 2 3 tcp 1040 ------- 0 1.0 4.0 3 6
+ 0.23448 3 4 tcp 1040 ------- 0 1.0 4.0 3 6
- 0.23448 3 4 tcp 1040 ------- 0 1.0 4.0 3 6
r 0.24112 1 2 tcp 1040 ------- 0 1.0 4.0 6 9
+ 0.24112 2 3 tcp 1040 ------- 0 1.0 4.0 6 9
- 0.24112 2 3 tcp 1040 ------- 0 1.0 4.0 6 9
r 0.2428 2 3 tcp 1040 ------- 0 1.0 4.0 4 7
+ 0.2428 3 4 tcp 1040 ------- 0 1.0 4.0 4 7
- 0.2428 3 4 tcp 1040 ------- 0 1.0 4.0 4 7
r 0.25112 2 3 tcp 1040 ------- 0 1.0 4.0 5 8
+ 0.25112 3 4 tcp 1040 ------- 0 1.0 4.0 5 8
d 0.25112 3 4 tcp 1040 ------- 0 1.0 4.0 5 8
r 0.2528 3 4 tcp 1040 ------- 0 1.0 4.0 3 6
+ 0.2528 4 3 ack 40 ------- 0 4.0 1.0 3 10
- 0.2528 4 3 ack 40 ------- 0 4.0 1.0 3 10
r 0.25944 2 3 tcp 1040 ------- 0 1.0 4.0 6 9
+ 0.25944 3 4 tcp 1040 ------- 0 1.0 4.0 6 9
d 0.25944 3 4 tcp 1040 ------- 0 1.0 4.0 6 9
v 0.26000000000000001 eval {set sim_annotation {Error Occurs in 4th packet }}
r 0.26112 3 4 tcp 1040 ------- 0 1.0 4.0 4 7
+ 0.26112 4 3 ack 40 ------- 0 4.0 1.0 4 11
- 0.26112 4 3 ack 40 ------- 0 4.0 1.0 4 11
r 0.26312 4 3 ack 40 ------- 0 4.0 1.0 3 10
+ 0.26312 3 2 ack 40 ------- 0 4.0 1.0 3 10
- 0.26312 3 2 ack 40 ------- 0 4.0 1.0 3 10
r 0.27144 4 3 ack 40 ------- 0 4.0 1.0 4 11
+ 0.27144 3 2 ack 40 ------- 0 4.0 1.0 4 11
- 0.27144 3 2 ack 40 ------- 0 4.0 1.0 4 11
r 0.27344 3 2 ack 40 ------- 0 4.0 1.0 3 10
+ 0.27344 2 1 ack 40 ------- 0 4.0 1.0 3 10
- 0.27344 2 1 ack 40 ------- 0 4.0 1.0 3 10
r 0.28176 3 2 ack 40 ------- 0 4.0 1.0 4 11
+ 0.28176 2 1 ack 40 ------- 0 4.0 1.0 4 11
- 0.28176 2 1 ack 40 ------- 0 4.0 1.0 4 11
r 0.28376 2 1 ack 40 ------- 0 4.0 1.0 3 10
+ 0.28376 1 2 tcp 1040 ------- 0 1.0 4.0 7 12
- 0.28376 1 2 tcp 1040 ------- 0 1.0 4.0 7 12
+ 0.28376 1 2 tcp 1040 ------- 0 1.0 4.0 8 13
r 0.29208 2 1 ack 40 ------- 0 4.0 1.0 4 11
+ 0.29208 1 2 tcp 1040 ------- 0 1.0 4.0 9 14
+ 0.29208 1 2 tcp 1040 ------- 0 1.0 4.0 10 15
- 0.29208 1 2 tcp 1040 ------- 0 1.0 4.0 8 13
v 0.29999999999999999 eval {set sim_annotation {Retransmit Packet_4 from SYS1 to SYS4}}
- 0.3004 1 2 tcp 1040 ------- 0 1.0 4.0 9 14
r 0.30208 1 2 tcp 1040 ------- 0 1.0 4.0 7 12
+ 0.30208 2 3 tcp 1040 ------- 0 1.0 4.0 7 12
- 0.30208 2 3 tcp 1040 ------- 0 1.0 4.0 7 12
- 0.30872 1 2 tcp 1040 ------- 0 1.0 4.0 10 15
r 0.3104 1 2 tcp 1040 ------- 0 1.0 4.0 8 13
+ 0.3104 2 3 tcp 1040 ------- 0 1.0 4.0 8 13
- 0.3104 2 3 tcp 1040 ------- 0 1.0 4.0 8 13
r 0.31872 1 2 tcp 1040 ------- 0 1.0 4.0 9 14
+ 0.31872 2 3 tcp 1040 ------- 0 1.0 4.0 9 14
- 0.31872 2 3 tcp 1040 ------- 0 1.0 4.0 9 14
r 0.3204 2 3 tcp 1040 ------- 0 1.0 4.0 7 12
+ 0.3204 3 4 tcp 1040 ------- 0 1.0 4.0 7 12
- 0.3204 3 4 tcp 1040 ------- 0 1.0 4.0 7 12
r 0.32704 1 2 tcp 1040 ------- 0 1.0 4.0 10 15
+ 0.32704 2 3 tcp 1040 ------- 0 1.0 4.0 10 15
- 0.32704 2 3 tcp 1040 ------- 0 1.0 4.0 10 15
r 0.32872 2 3 tcp 1040 ------- 0 1.0 4.0 8 13
+ 0.32872 3 4 tcp 1040 ------- 0 1.0 4.0 8 13
- 0.32872 3 4 tcp 1040 ------- 0 1.0 4.0 8 13
r 0.33704 2 3 tcp 1040 ------- 0 1.0 4.0 9 14
+ 0.33704 3 4 tcp 1040 ------- 0 1.0 4.0 9 14
- 0.33704 3 4 tcp 1040 ------- 0 1.0 4.0 9 14
r 0.33872 3 4 tcp 1040 ------- 0 1.0 4.0 7 12
+ 0.33872 4 3 ack 40 ------- 0 4.0 1.0 4 16
- 0.33872 4 3 ack 40 ------- 0 4.0 1.0 4 16
r 0.34536 2 3 tcp 1040 ------- 0 1.0 4.0 10 15
+ 0.34536 3 4 tcp 1040 ------- 0 1.0 4.0 10 15
- 0.34536 3 4 tcp 1040 ------- 0 1.0 4.0 10 15
r 0.34704 3 4 tcp 1040 ------- 0 1.0 4.0 8 13
+ 0.34704 4 3 ack 40 ------- 0 4.0 1.0 4 17
- 0.34704 4 3 ack 40 ------- 0 4.0 1.0 4 17
r 0.34904 4 3 ack 40 ------- 0 4.0 1.0 4 16
+ 0.34904 3 2 ack 40 ------- 0 4.0 1.0 4 16
- 0.34904 3 2 ack 40 ------- 0 4.0 1.0 4 16
r 0.35536 3 4 tcp 1040 ------- 0 1.0 4.0 9 14
+ 0.35536 4 3 ack 40 ------- 0 4.0 1.0 4 18
- 0.35536 4 3 ack 40 ------- 0 4.0 1.0 4 18
r 0.35736 4 3 ack 40 ------- 0 4.0 1.0 4 17
+ 0.35736 3 2 ack 40 ------- 0 4.0 1.0 4 17
- 0.35736 3 2 ack 40 ------- 0 4.0 1.0 4 17
r 0.35936 3 2 ack 40 ------- 0 4.0 1.0 4 16
+ 0.35936 2 1 ack 40 ------- 0 4.0 1.0 4 16
- 0.35936 2 1 ack 40 ------- 0 4.0 1.0 4 16
r 0.36368 3 4 tcp 1040 ------- 0 1.0 4.0 10 15
+ 0.36368 4 3 ack 40 ------- 0 4.0 1.0 4 19
- 0.36368 4 3 ack 40 ------- 0 4.0 1.0 4 19
r 0.36568 4 3 ack 40 ------- 0 4.0 1.0 4 18
+ 0.36568 3 2 ack 40 ------- 0 4.0 1.0 4 18
- 0.36568 3 2 ack 40 ------- 0 4.0 1.0 4 18
r 0.36768 3 2 ack 40 ------- 0 4.0 1.0 4 17
+ 0.36768 2 1 ack 40 ------- 0 4.0 1.0 4 17
- 0.36768 2 1 ack 40 ------- 0 4.0 1.0 4 17
r 0.36968 2 1 ack 40 ------- 0 4.0 1.0 4 16
+ 0.36968 1 2 tcp 1040 ------- 0 1.0 4.0 11 20
- 0.36968 1 2 tcp 1040 ------- 0 1.0 4.0 11 20
r 0.374 4 3 ack 40 ------- 0 4.0 1.0 4 19
+ 0.374 3 2 ack 40 ------- 0 4.0 1.0 4 19
- 0.374 3 2 ack 40 ------- 0 4.0 1.0 4 19
r 0.376 3 2 ack 40 ------- 0 4.0 1.0 4 18
+ 0.376 2 1 ack 40 ------- 0 4.0 1.0 4 18
- 0.376 2 1 ack 40 ------- 0 4.0 1.0 4 18
r 0.378 2 1 ack 40 ------- 0 4.0 1.0 4 17
+ 0.378 1 2 tcp 1040 ------- 0 1.0 4.0 12 21
- 0.378 1 2 tcp 1040 ------- 0 1.0 4.0 12 21
r 0.38432 3 2 ack 40 ------- 0 4.0 1.0 4 19
+ 0.38432 2 1 ack 40 ------- 0 4.0 1.0 4 19
- 0.38432 2 1 ack 40 ------- 0 4.0 1.0 4 19
r 0.38632 2 1 ack 40 ------- 0 4.0 1.0 4 18
+ 0.38632 1 2 tcp 1040 ---A--- 0 1.0 4.0 5 22
- 0.38632 1 2 tcp 1040 ---A--- 0 1.0 4.0 5 22
r 0.388 1 2 tcp 1040 ------- 0 1.0 4.0 11 20
+ 0.388 2 3 tcp 1040 ------- 0 1.0 4.0 11 20
- 0.388 2 3 tcp 1040 ------- 0 1.0 4.0 11 20
r 0.39464 2 1 ack 40 ------- 0 4.0 1.0 4 19
r 0.39632 1 2 tcp 1040 ------- 0 1.0 4.0 12 21
+ 0.39632 2 3 tcp 1040 ------- 0 1.0 4.0 12 21
- 0.39632 2 3 tcp 1040 ------- 0 1.0 4.0 12 21
r 0.40464 1 2 tcp 1040 ---A--- 0 1.0 4.0 5 22
+ 0.40464 2 3 tcp 1040 ---A--- 0 1.0 4.0 5 22
- 0.40464 2 3 tcp 1040 ---A--- 0 1.0 4.0 5 22
r 0.40632 2 3 tcp 1040 ------- 0 1.0 4.0 11 20
+ 0.40632 3 4 tcp 1040 ------- 0 1.0 4.0 11 20
- 0.40632 3 4 tcp 1040 ------- 0 1.0 4.0 11 20
r 0.41464 2 3 tcp 1040 ------- 0 1.0 4.0 12 21
+ 0.41464 3 4 tcp 1040 ------- 0 1.0 4.0 12 21
- 0.41464 3 4 tcp 1040 ------- 0 1.0 4.0 12 21
r 0.42296 2 3 tcp 1040 ---A--- 0 1.0 4.0 5 22
+ 0.42296 3 4 tcp 1040 ---A--- 0 1.0 4.0 5 22
- 0.42296 3 4 tcp 1040 ---A--- 0 1.0 4.0 5 22
r 0.42464 3 4 tcp 1040 ------- 0 1.0 4.0 11 20
+ 0.42464 4 3 ack 40 ------- 0 4.0 1.0 4 23
- 0.42464 4 3 ack 40 ------- 0 4.0 1.0 4 23
r 0.43296 3 4 tcp 1040 ------- 0 1.0 4.0 12 21
+ 0.43296 4 3 ack 40 ------- 0 4.0 1.0 4 24
- 0.43296 4 3 ack 40 ------- 0 4.0 1.0 4 24
r 0.43496 4 3 ack 40 ------- 0 4.0 1.0 4 23
+ 0.43496 3 2 ack 40 ------- 0 4.0 1.0 4 23
- 0.43496 3 2 ack 40 ------- 0 4.0 1.0 4 23
r 0.44128 3 4 tcp 1040 ---A--- 0 1.0 4.0 5 22
+ 0.44128 4 3 ack 40 ------- 0 4.0 1.0 5 25
- 0.44128 4 3 ack 40 ------- 0 4.0 1.0 5 25
r 0.44328 4 3 ack 40 ------- 0 4.0 1.0 4 24
+ 0.44328 3 2 ack 40 ------- 0 4.0 1.0 4 24
- 0.44328 3 2 ack 40 ------- 0 4.0 1.0 4 24
r 0.44528 3 2 ack 40 ------- 0 4.0 1.0 4 23
+ 0.44528 2 1 ack 40 ------- 0 4.0 1.0 4 23
- 0.44528 2 1 ack 40 ------- 0 4.0 1.0 4 23
r 0.4516 4 3 ack 40 ------- 0 4.0 1.0 5 25
+ 0.4516 3 2 ack 40 ------- 0 4.0 1.0 5 25
- 0.4516 3 2 ack 40 ------- 0 4.0 1.0 5 25
r 0.4536 3 2 ack 40 ------- 0 4.0 1.0 4 24
+ 0.4536 2 1 ack 40 ------- 0 4.0 1.0 4 24
- 0.4536 2 1 ack 40 ------- 0 4.0 1.0 4 24
r 0.4556 2 1 ack 40 ------- 0 4.0 1.0 4 23
r 0.46192 3 2 ack 40 ------- 0 4.0 1.0 5 25
+ 0.46192 2 1 ack 40 ------- 0 4.0 1.0 5 25
- 0.46192 2 1 ack 40 ------- 0 4.0 1.0 5 25
r 0.46392 2 1 ack 40 ------- 0 4.0 1.0 4 24
r 0.47224 2 1 ack 40 ------- 0 4.0 1.0 5 25
v 1.5 eval {set sim_annotation {FTP stops}}
